LAMMPS DATA FILE FOR CHA_Cartesian

120 atoms
168 bonds
336 angles
1584 dihedrals

2 atom types
1 bond types
1 angle types
3 dihedral types
0 improper types

0 26.5326 xlo xhi
0 24.4848 ylo yhi
0 17.925399999999996 zlo zhi

Masses

1 14.07
2 1.005

Bond Coeffs

1 680.0 1.61

Angle Coeffs

1 70.0 149.43

Dihedral Coeffs

1 4.8 38.89 1
2 4.8 24.2875 1
3 4.8 158.6827 1

Atoms # full

1 1 1 -0.28 11.664774553 1.160603842 1.8119109
2 1 1 -0.28 -4.827275171000001 10.682293719 12.955089629
3 1 1 -0.28 6.837500503000001 9.521689171 1.8119109
4 1 1 -0.28 1.0200000000182285e-07 2.321207685 12.955089629
5 1 1 -0.28 2.010224823 1.160603842 1.8119109
6 1 1 -0.28 4.827275273 10.682293719 12.955089629
7 1 1 -0.28 4.827275477 5.108236481 6.734244556
8 1 1 -0.28 8.847725224000001 2.787028619 3.1104225369999994
9 1 1 -0.28 6.837500401 1.626424777 6.734244556
10 1 1 -0.28 6.837500503000001 6.26883997 3.1104225369999994
11 1 1 -0.28 8.847725122 5.108236481 6.734244556
12 1 1 -0.28 4.827275171 2.787028619 3.1104225369999994
13 1 1 -0.28 -2.010225026 9.055869119 11.656577662
14 1 1 -0.28 2.010224823 6.734661434 8.032755643
15 1 1 -0.28 0.0 5.574057239 11.656577662
16 1 1 -0.28 0.0 10.216472962 8.032755643
17 1 1 -0.28 2.0102244150000006 9.055869119 11.656577662
18 1 1 -0.28 -2.0102250260000005 6.734661434 8.032755643
19 1 1 -0.28 11.236064089 3.6724824059999994 2.461166773
20 1 1 -0.28 -4.398564529000001 8.170416215 12.305833205
21 1 1 -0.28 4.876505699000001 7.894475384000001 2.461166773
22 1 1 -0.28 1.9609950070000002 3.9484218250000005 12.305833205
23 1 1 -0.28 4.399931122 0.275939397 2.461166773
24 1 1 -0.28 2.437568578999999 11.566958142 12.305833205
25 1 1 -0.28 -2.4375685790000006 11.566958142 12.305833205
26 1 1 -0.28 9.275069502000001 0.275939397 2.461166773
27 1 1 -0.28 4.398562974999999 8.170416215 12.305833205
28 1 1 -0.28 2.438936102 3.6724824059999994 2.461166773
29 1 1 -0.28 -1.9609950330000003 3.9484218250000005 12.305833205
30 1 1 -0.28 8.798495307 7.894475384000001 2.461166773
31 1 1 -0.28 4.398564197000001 7.620115043999999 7.383500099
32 1 1 -0.28 -1.9609948040000003 11.842108375 7.383500099
33 1 1 -0.28 8.798494899 7.896054464 2.461166553
34 1 1 -0.28 -2.437569232000001 4.223572411 7.383500099
35 1 1 -0.28 2.437568782 3.6716932190000002 2.461166553
36 1 1 -0.28 2.437568579 4.223572411 7.383500099
37 1 1 -0.28 4.398563854000001 0.275150122 2.461166553
38 1 1 -0.28 -4.398563725 7.620115043999999 7.383500099
39 1 1 -0.28 4.876505291999999 7.896054464 2.461166553
40 1 1 -0.28 1.960995211000001 11.842108375 7.383500099
41 1 1 -0.28 -1.960994931 3.946843098 12.305833205
42 1 1 -0.28 8.798495238000001 0.000789305 7.383500099
43 1 1 -0.28 4.399931109 8.171204696 12.305833205
44 1 1 -0.28 9.275069081999998 7.619325857000001 7.383500099
45 1 1 -0.28 11.236064293000002 4.222782518 7.383500099
46 1 1 -0.28 2.4389363060000013 11.567747329 12.305833205
47 1 1 -0.28 4.876505223 0.000789305 7.383500099
48 1 1 -0.28 1.9609952110000002 3.946843098 12.305833205
49 1 1 -0.28 0.0006837619999997546 2.848217077 1.941860611
50 1 1 -0.28 6.836816232000001 8.994681015 12.825139588
51 1 1 -0.28 4.3705306859999995 10.419380825 1.941860611
52 1 1 -0.28 2.466969868 1.423516295 12.825139588
53 1 1 -0.28 -4.371213734 10.418196339 1.941860611
54 1 1 -0.28 11.208714186 1.424700605 12.825139588
55 1 1 -0.28 6.838183958999998 6.795849539000001 6.864194597
56 1 1 -0.28 6.83681669 1.09941565 2.980472716
57 1 1 -0.28 4.3705294630000004 2.524116255 6.864194597
58 1 1 -0.28 9.304470116 5.371148669 2.980472716
59 1 1 -0.28 9.303786253000002 2.522932121 6.864194597
60 1 1 -0.28 4.37121353 5.372333155 2.980472716
61 1 1 -0.28 0.0006838630000007839 10.743481824 11.786527703
62 1 1 -0.28 -0.0006836600000004189 5.047048023 7.902806481999999
63 1 1 -0.28 -2.4669701230000003 6.47174854 11.786527703
64 1 1 -0.28 2.4669706319999998 9.318780601 7.902806481999999
65 1 1 -0.28 2.466285954000001 6.47056476 11.786527703
66 1 1 -0.28 -2.466286361 9.319965088 7.902806481999999
67 1 1 -0.28 -1.7620237490000001 3.051914657 0.0
68 1 1 -0.28 -5.075476550000001 8.790983258 0.0
69 1 1 -0.28 5.07547655 8.790983258 0.0
70 1 1 -0.28 1.7620237490000004 3.051914657 0.0
71 1 1 -0.28 3.5240474980000003 0.0 0.0
72 1 1 -0.28 10.150953101 0.0 0.0
73 1 1 -0.28 5.075476550000002 6.999547295 4.922333546
74 1 1 -0.28 8.599524914 0.8957178930000002 4.922333546
75 1 1 -0.28 5.075476194 0.8957178930000002 4.922333546
76 1 1 -0.28 8.599523640000001 6.999547295 4.922333546
77 1 1 -0.28 10.361547389 3.9476326380000004 4.922333546
78 1 1 -0.28 3.313452394000001 3.9476326380000004 4.922333546
79 1 1 -0.28 -1.762023545 10.947179581 9.844667092
80 1 1 -0.28 1.762023953 4.843350267 9.844667092
81 1 1 -0.28 -1.7620236470000001 4.843350267 9.844667092
82 1 1 -0.28 1.7620239530000008 10.947179581 9.844667092
83 1 1 -0.28 3.524047497999998 7.895265277 9.844667092
84 1 1 -0.28 -3.524047701000001 7.895265277 9.844667092
85 1 2 0.1481 12.122887784000001 2.681232042 1.552011697
86 1 2 0.1481 -5.2853873280000006 9.161664638 13.214988831
87 1 2 0.1481 5.291541135000001 9.158112591 1.552011697
88 1 2 0.1481 1.545958756 2.684784971 13.214988831
89 1 2 0.1481 3.098071266 0.003552751 1.552011697
90 1 2 0.1481 3.7394286270000014 11.839344809 13.214988831
91 1 2 0.1481 -3.7394286270000006 11.839344809 13.214988831
92 1 2 0.1481 10.576928723000002 0.003552751 1.552011697
93 1 2 0.1481 5.2853879940000015 9.161664638 13.214988831
94 1 2 0.1481 1.552112407 2.681232042 1.552011697
95 1 2 0.1481 -1.5459589240000005 2.684784971 13.214988831
96 1 2 0.1481 8.383459055000001 9.158112591 1.552011697
97 1 2 0.1481 5.285387993999999 6.628864503000001 6.474344914
98 1 2 0.1481 8.389612808000003 1.26640042 3.370321739
99 1 2 0.1481 5.291541288 1.262847755 6.474344914
100 1 2 0.1481 8.383459463 6.632417256 3.370321739
101 1 2 0.1481 9.935570953000001 3.951185391 6.474344914
102 1 2 0.1481 3.739428831000001 3.9440798850000003 3.370321739
103 1 2 0.1481 9.935570953000001 3.9440798850000003 3.370321739
104 1 2 0.1481 3.739428831 3.951185391 6.474344914
105 1 2 0.1481 5.285387383000001 1.26640042 3.370321739
106 1 2 0.1481 8.389612196000002 6.628864503000001 6.474344914
107 1 2 0.1481 5.291541542999999 6.632417256 3.370321739
108 1 2 0.1481 8.383459208000001 1.262847755 6.474344914
109 1 2 0.1481 -1.5521121010000005 10.576496789 11.39667934
110 1 2 0.1481 1.552112509 5.214033058 8.292654845
111 1 2 0.1481 -1.5459589600000003 5.210480306 11.39667934
112 1 2 0.1481 1.54595896 10.580049542 8.292654845
113 1 2 0.1481 3.0980710609999997 7.898818029999999 11.39667934
114 1 2 0.1481 -3.098071265 7.891712524 8.292654845
115 1 2 0.1481 3.0980710610000015 7.891712524 8.292654845
116 1 2 0.1481 -3.098071367 7.898818029999999 11.39667934
117 1 2 0.1481 -1.5521124070000005 5.214033058 8.292654845
118 1 2 0.1481 1.5521125089999996 10.576496789 11.39667934
119 1 2 0.1481 -1.545958552 10.580049542 8.292654845
120 1 2 0.1481 1.54595896 5.210480306 11.39667934

Velocities

1 0 0 0
2 0 0 0
3 0 0 0
4 0 0 0
5 0 0 0
6 0 0 0
7 0 0 0
8 0 0 0
9 0 0 0
10 0 0 0
11 0 0 0
12 0 0 0
13 0 0 0
14 0 0 0
15 0 0 0
16 0 0 0
17 0 0 0
18 0 0 0
19 0 0 0
20 0 0 0
21 0 0 0
22 0 0 0
23 0 0 0
24 0 0 0
25 0 0 0
26 0 0 0
27 0 0 0
28 0 0 0
29 0 0 0
30 0 0 0
31 0 0 0
32 0 0 0
33 0 0 0
34 0 0 0
35 0 0 0
36 0 0 0
37 0 0 0
38 0 0 0
39 0 0 0
40 0 0 0
41 0 0 0
42 0 0 0
43 0 0 0
44 0 0 0
45 0 0 0
46 0 0 0
47 0 0 0
48 0 0 0
49 0 0 0
50 0 0 0
51 0 0 0
52 0 0 0
53 0 0 0
54 0 0 0
55 0 0 0
56 0 0 0
57 0 0 0
58 0 0 0
59 0 0 0
60 0 0 0
61 0 0 0
62 0 0 0
63 0 0 0
64 0 0 0
65 0 0 0
66 0 0 0
67 0 0 0
68 0 0 0
69 0 0 0
70 0 0 0
71 0 0 0
72 0 0 0
73 0 0 0
74 0 0 0
75 0 0 0
76 0 0 0
77 0 0 0
78 0 0 0
79 0 0 0
80 0 0 0
81 0 0 0
82 0 0 0
83 0 0 0
84 0 0 0
85 0 0 0
86 0 0 0
87 0 0 0
88 0 0 0
89 0 0 0
90 0 0 0
91 0 0 0
92 0 0 0
93 0 0 0
94 0 0 0
95 0 0 0
96 0 0 0
97 0 0 0
98 0 0 0
99 0 0 0
100 0 0 0
101 0 0 0
102 0 0 0
103 0 0 0
104 0 0 0
105 0 0 0
106 0 0 0
107 0 0 0
108 0 0 0
109 0 0 0
110 0 0 0
111 0 0 0
112 0 0 0
113 0 0 0
114 0 0 0
115 0 0 0
116 0 0 0
117 0 0 0
118 0 0 0
119 0 0 0
120 0 0 0

Bonds

1 1 1 92
2 1 1 85
3 1 2 86
4 1 2 91
5 1 3 87
6 1 3 96
7 1 4 95
8 1 4 88
9 1 5 94
10 1 5 89
11 1 6 90
12 1 6 93
13 1 7 104
14 1 7 97
15 1 8 98
16 1 8 103
17 1 9 99
18 1 9 108
19 1 10 107
20 1 10 100
21 1 11 106
22 1 11 101
23 1 12 102
24 1 12 105
25 1 13 116
26 1 13 109
27 1 14 110
28 1 14 115
29 1 15 111
30 1 15 120
31 1 16 119
32 1 16 112
33 1 17 118
34 1 17 113
35 1 18 114
36 1 18 117
37 1 19 103
38 1 19 85
39 1 20 86
40 1 20 116
41 1 21 107
42 1 21 87
43 1 22 88
44 1 22 120
45 1 23 89
46 1 23 105
47 1 24 118
48 1 24 90
49 1 25 91
50 1 25 109
51 1 26 98
52 1 26 92
53 1 27 113
54 1 27 93
55 1 28 94
56 1 28 102
57 1 29 95
58 1 29 111
59 1 30 100
60 1 30 96
61 1 31 115
62 1 31 97
63 1 32 119
64 1 32 99
65 1 33 100
66 1 33 96
67 1 34 101
68 1 34 117
69 1 35 94
70 1 35 102
71 1 36 110
72 1 36 104
73 1 37 89
74 1 37 105
75 1 38 106
76 1 38 114
77 1 39 107
78 1 39 87
79 1 40 112
80 1 40 108
81 1 41 95
82 1 41 111
83 1 42 112
84 1 42 108
85 1 43 113
86 1 43 93
87 1 44 106
88 1 44 114
89 1 45 101
90 1 45 117
91 1 46 118
92 1 46 90
93 1 47 119
94 1 47 99
95 1 48 88
96 1 48 120
97 1 49 85
98 1 49 94
99 1 50 93
100 1 50 86
101 1 51 92
102 1 51 87
103 1 52 88
104 1 52 91
105 1 53 96
106 1 53 89
107 1 54 90
108 1 54 95
109 1 55 97
110 1 55 106
111 1 56 105
112 1 56 98
113 1 57 104
114 1 57 99
115 1 58 100
116 1 58 103
117 1 59 108
118 1 59 101
119 1 60 102
120 1 60 107
121 1 61 109
122 1 61 118
123 1 62 117
124 1 62 110
125 1 63 116
126 1 63 111
127 1 64 112
128 1 64 115
129 1 65 120
130 1 65 113
131 1 66 114
132 1 66 119
133 1 67 95
134 1 67 85
135 1 68 96
136 1 68 86
137 1 69 93
138 1 69 87
139 1 70 88
140 1 70 94
141 1 71 91
142 1 71 89
143 1 72 90
144 1 72 92
145 1 73 107
146 1 73 97
147 1 74 98
148 1 74 108
149 1 75 105
150 1 75 99
151 1 76 100
152 1 76 106
153 1 77 103
154 1 77 101
155 1 78 102
156 1 78 104
157 1 79 119
158 1 79 109
159 1 80 110
160 1 80 120
161 1 81 117
162 1 81 111
163 1 82 112
164 1 82 118
165 1 83 115
166 1 83 113
167 1 84 114
168 1 84 116

Angles

1 1 85 1 92
2 1 85 1 85
3 1 85 67 95
4 1 85 67 85
5 1 85 19 103
6 1 85 19 85
7 1 85 49 85
8 1 85 49 94
9 1 86 50 93
10 1 86 50 86
11 1 86 20 86
12 1 86 20 116
13 1 86 68 96
14 1 86 68 86
15 1 86 2 86
16 1 86 2 91
17 1 87 51 92
18 1 87 51 87
19 1 87 39 107
20 1 87 39 87
21 1 87 21 107
22 1 87 21 87
23 1 87 69 93
24 1 87 69 87
25 1 87 3 87
26 1 87 3 96
27 1 88 4 95
28 1 88 4 88
29 1 88 52 88
30 1 88 52 91
31 1 88 70 88
32 1 88 70 94
33 1 88 48 88
34 1 88 48 120
35 1 88 22 88
36 1 88 22 120
37 1 89 53 96
38 1 89 53 89
39 1 89 5 94
40 1 89 5 89
41 1 89 71 91
42 1 89 71 89
43 1 89 37 89
44 1 89 37 105
45 1 89 23 89
46 1 89 23 105
47 1 90 46 118
48 1 90 46 90
49 1 90 24 118
50 1 90 24 90
51 1 90 72 90
52 1 90 72 92
53 1 90 54 90
54 1 90 54 95
55 1 90 6 90
56 1 90 6 93
57 1 91 2 86
58 1 91 2 91
59 1 91 52 88
60 1 91 52 91
61 1 91 25 91
62 1 91 25 109
63 1 91 71 91
64 1 91 71 89
65 1 92 26 98
66 1 92 26 92
67 1 92 72 90
68 1 92 72 92
69 1 92 51 92
70 1 92 51 87
71 1 92 1 92
72 1 92 1 85
73 1 93 27 113
74 1 93 27 93
75 1 93 43 113
76 1 93 43 93
77 1 93 69 93
78 1 93 69 87
79 1 93 6 90
80 1 93 6 93
81 1 93 50 93
82 1 93 50 86
83 1 94 49 85
84 1 94 49 94
85 1 94 5 94
86 1 94 5 89
87 1 94 70 88
88 1 94 70 94
89 1 94 35 94
90 1 94 35 102
91 1 94 28 94
92 1 94 28 102
93 1 95 54 90
94 1 95 54 95
95 1 95 67 95
96 1 95 67 85
97 1 95 41 95
98 1 95 41 111
99 1 95 29 95
100 1 95 29 111
101 1 95 4 95
102 1 95 4 88
103 1 96 3 87
104 1 96 3 96
105 1 96 33 100
106 1 96 33 96
107 1 96 30 100
108 1 96 30 96
109 1 96 68 96
110 1 96 68 86
111 1 96 53 96
112 1 96 53 89
113 1 97 31 115
114 1 97 31 97
115 1 97 7 104
116 1 97 7 97
117 1 97 73 107
118 1 97 73 97
119 1 97 55 97
120 1 97 55 106
121 1 98 56 105
122 1 98 56 98
123 1 98 26 98
124 1 98 26 92
125 1 98 74 98
126 1 98 74 108
127 1 98 8 98
128 1 98 8 103
129 1 99 57 104
130 1 99 57 99
131 1 99 32 119
132 1 99 32 99
133 1 99 75 105
134 1 99 75 99
135 1 99 47 119
136 1 99 47 99
137 1 99 9 99
138 1 99 9 108
139 1 100 10 107
140 1 100 10 100
141 1 100 58 100
142 1 100 58 103
143 1 100 33 100
144 1 100 33 96
145 1 100 30 100
146 1 100 30 96
147 1 100 76 100
148 1 100 76 106
149 1 101 59 108
150 1 101 59 101
151 1 101 11 106
152 1 101 11 101
153 1 101 77 103
154 1 101 77 101
155 1 101 34 101
156 1 101 34 117
157 1 101 45 101
158 1 101 45 117
159 1 102 35 94
160 1 102 35 102
161 1 102 28 94
162 1 102 28 102
163 1 102 78 102
164 1 102 78 104
165 1 102 60 102
166 1 102 60 107
167 1 102 12 102
168 1 102 12 105
169 1 103 8 98
170 1 103 8 103
171 1 103 58 100
172 1 103 58 103
173 1 103 77 103
174 1 103 77 101
175 1 103 19 103
176 1 103 19 85
177 1 104 36 110
178 1 104 36 104
179 1 104 57 104
180 1 104 57 99
181 1 104 78 102
182 1 104 78 104
183 1 104 7 104
184 1 104 7 97
185 1 105 37 89
186 1 105 37 105
187 1 105 23 89
188 1 105 23 105
189 1 105 75 105
190 1 105 75 99
191 1 105 12 102
192 1 105 12 105
193 1 105 56 105
194 1 105 56 98
195 1 106 55 97
196 1 106 55 106
197 1 106 11 106
198 1 106 11 101
199 1 106 76 100
200 1 106 76 106
201 1 106 38 106
202 1 106 38 114
203 1 106 44 106
204 1 106 44 114
205 1 107 60 102
206 1 107 60 107
207 1 107 39 107
208 1 107 39 87
209 1 107 21 107
210 1 107 21 87
211 1 107 73 107
212 1 107 73 97
213 1 107 10 107
214 1 107 10 100
215 1 108 9 99
216 1 108 9 108
217 1 108 40 112
218 1 108 40 108
219 1 108 74 98
220 1 108 74 108
221 1 108 42 112
222 1 108 42 108
223 1 108 59 108
224 1 108 59 101
225 1 109 25 91
226 1 109 25 109
227 1 109 13 116
228 1 109 13 109
229 1 109 79 119
230 1 109 79 109
231 1 109 61 109
232 1 109 61 118
233 1 110 62 117
234 1 110 62 110
235 1 110 36 110
236 1 110 36 104
237 1 110 80 110
238 1 110 80 120
239 1 110 14 110
240 1 110 14 115
241 1 111 63 116
242 1 111 63 111
243 1 111 81 117
244 1 111 81 111
245 1 111 41 95
246 1 111 41 111
247 1 111 29 95
248 1 111 29 111
249 1 111 15 111
250 1 111 15 120
251 1 112 16 119
252 1 112 16 112
253 1 112 64 112
254 1 112 64 115
255 1 112 82 112
256 1 112 82 118
257 1 112 42 112
258 1 112 42 108
259 1 112 40 112
260 1 112 40 108
261 1 113 65 120
262 1 113 65 113
263 1 113 17 118
264 1 113 17 113
265 1 113 83 115
266 1 113 83 113
267 1 113 27 113
268 1 113 27 93
269 1 113 43 113
270 1 113 43 93
271 1 114 38 106
272 1 114 38 114
273 1 114 44 106
274 1 114 44 114
275 1 114 84 114
276 1 114 84 116
277 1 114 66 114
278 1 114 66 119
279 1 114 18 114
280 1 114 18 117
281 1 115 14 110
282 1 115 14 115
283 1 115 64 112
284 1 115 64 115
285 1 115 31 115
286 1 115 31 97
287 1 115 83 115
288 1 115 83 113
289 1 116 20 86
290 1 116 20 116
291 1 116 63 116
292 1 116 63 111
293 1 116 84 114
294 1 116 84 116
295 1 116 13 116
296 1 116 13 109
297 1 117 34 101
298 1 117 34 117
299 1 117 45 101
300 1 117 45 117
301 1 117 81 117
302 1 117 81 111
303 1 117 18 114
304 1 117 18 117
305 1 117 62 117
306 1 117 62 110
307 1 118 61 109
308 1 118 61 118
309 1 118 17 118
310 1 118 17 113
311 1 118 82 112
312 1 118 82 118
313 1 118 46 118
314 1 118 46 90
315 1 118 24 118
316 1 118 24 90
317 1 119 66 114
318 1 119 66 119
319 1 119 79 119
320 1 119 79 109
321 1 119 47 119
322 1 119 47 99
323 1 119 32 119
324 1 119 32 99
325 1 119 16 119
326 1 119 16 112
327 1 120 15 111
328 1 120 15 120
329 1 120 80 110
330 1 120 80 120
331 1 120 48 88
332 1 120 48 120
333 1 120 22 88
334 1 120 22 120
335 1 120 65 120
336 1 120 65 113

Dihedrals

1 1 85 1 92 26
2 1 85 1 92 72
3 1 85 1 92 51
4 1 85 1 92 1
5 1 85 1 85 1
6 1 85 1 85 67
7 1 85 1 85 19
8 1 85 1 85 49
9 1 85 67 95 54
10 1 85 67 95 67
11 1 85 67 95 41
12 1 85 67 95 29
13 1 85 67 95 4
14 1 85 67 85 1
15 1 85 67 85 67
16 1 85 67 85 19
17 1 85 67 85 49
18 1 85 19 103 8
19 1 85 19 103 58
20 1 85 19 103 77
21 1 85 19 103 19
22 1 85 19 85 1
23 1 85 19 85 67
24 1 85 19 85 19
25 1 85 19 85 49
26 1 85 49 85 1
27 1 85 49 85 67
28 1 85 49 85 19
29 1 85 49 85 49
30 1 85 49 94 49
31 1 85 49 94 5
32 1 85 49 94 70
33 1 85 49 94 35
34 1 85 49 94 28
35 1 86 50 93 27
36 1 86 50 93 43
37 1 86 50 93 69
38 1 86 50 93 6
39 1 86 50 93 50
40 1 86 50 86 50
41 1 86 50 86 20
42 1 86 50 86 68
43 1 86 50 86 2
44 1 86 20 86 50
45 1 86 20 86 20
46 1 86 20 86 68
47 1 86 20 86 2
48 1 86 20 116 20
49 1 86 20 116 63
50 1 86 20 116 84
51 1 86 20 116 13
52 1 86 68 96 3
53 1 86 68 96 33
54 1 86 68 96 30
55 1 86 68 96 68
56 1 86 68 96 53
57 1 86 68 86 50
58 1 86 68 86 20
59 1 86 68 86 68
60 1 86 68 86 2
61 1 86 2 86 50
62 1 86 2 86 20
63 1 86 2 86 68
64 1 86 2 86 2
65 1 86 2 91 2
66 1 86 2 91 52
67 1 86 2 91 25
68 1 86 2 91 71
69 1 87 51 92 26
70 1 87 51 92 72
71 1 87 51 92 51
72 1 87 51 92 1
73 1 87 51 87 51
74 1 87 51 87 39
75 1 87 51 87 21
76 1 87 51 87 69
77 1 87 51 87 3
78 1 87 39 107 60
79 1 87 39 107 39
80 1 87 39 107 21
81 1 87 39 107 73
82 1 87 39 107 10
83 1 87 39 87 51
84 1 87 39 87 39
85 1 87 39 87 21
86 1 87 39 87 69
87 1 87 39 87 3
88 1 87 21 107 60
89 1 87 21 107 39
90 1 87 21 107 21
91 1 87 21 107 73
92 1 87 21 107 10
93 1 87 21 87 51
94 1 87 21 87 39
95 1 87 21 87 21
96 1 87 21 87 69
97 1 87 21 87 3
98 1 87 69 93 27
99 1 87 69 93 43
100 1 87 69 93 69
101 1 87 69 93 6
102 1 87 69 93 50
103 1 87 69 87 51
104 1 87 69 87 39
105 1 87 69 87 21
106 1 87 69 87 69
107 1 87 69 87 3
108 1 87 3 87 51
109 1 87 3 87 39
110 1 87 3 87 21
111 1 87 3 87 69
112 1 87 3 87 3
113 1 87 3 96 3
114 1 87 3 96 33
115 1 87 3 96 30
116 1 87 3 96 68
117 1 87 3 96 53
118 1 88 4 95 54
119 1 88 4 95 67
120 1 88 4 95 41
121 1 88 4 95 29
122 1 88 4 95 4
123 1 88 4 88 4
124 1 88 4 88 52
125 1 88 4 88 70
126 1 88 4 88 48
127 1 88 4 88 22
128 1 88 52 88 4
129 1 88 52 88 52
130 1 88 52 88 70
131 1 88 52 88 48
132 1 88 52 88 22
133 1 88 52 91 2
134 1 88 52 91 52
135 1 88 52 91 25
136 1 88 52 91 71
137 1 88 70 88 4
138 1 88 70 88 52
139 1 88 70 88 70
140 1 88 70 88 48
141 1 88 70 88 22
142 1 88 70 94 49
143 1 88 70 94 5
144 1 88 70 94 70
145 1 88 70 94 35
146 1 88 70 94 28
147 1 88 48 88 4
148 1 88 48 88 52
149 1 88 48 88 70
150 1 88 48 88 48
151 1 88 48 88 22
152 1 88 48 120 15
153 1 88 48 120 80
154 1 88 48 120 48
155 1 88 48 120 22
156 1 88 48 120 65
157 1 88 22 88 4
158 1 88 22 88 52
159 1 88 22 88 70
160 1 88 22 88 48
161 1 88 22 88 22
162 1 88 22 120 15
163 1 88 22 120 80
164 1 88 22 120 48
165 1 88 22 120 22
166 1 88 22 120 65
167 1 89 53 96 3
168 1 89 53 96 33
169 1 89 53 96 30
170 1 89 53 96 68
171 1 89 53 96 53
172 1 89 53 89 53
173 1 89 53 89 5
174 1 89 53 89 71
175 1 89 53 89 37
176 1 89 53 89 23
177 1 89 5 94 49
178 1 89 5 94 5
179 1 89 5 94 70
180 1 89 5 94 35
181 1 89 5 94 28
182 1 89 5 89 53
183 1 89 5 89 5
184 1 89 5 89 71
185 1 89 5 89 37
186 1 89 5 89 23
187 1 89 71 91 2
188 1 89 71 91 52
189 1 89 71 91 25
190 1 89 71 91 71
191 1 89 71 89 53
192 1 89 71 89 5
193 1 89 71 89 71
194 1 89 71 89 37
195 1 89 71 89 23
196 1 89 37 89 53
197 1 89 37 89 5
198 1 89 37 89 71
199 1 89 37 89 37
200 1 89 37 89 23
201 1 89 37 105 37
202 1 89 37 105 23
203 1 89 37 105 75
204 1 89 37 105 12
205 1 89 37 105 56
206 1 89 23 89 53
207 1 89 23 89 5
208 1 89 23 89 71
209 1 89 23 89 37
210 1 89 23 89 23
211 1 89 23 105 37
212 1 89 23 105 23
213 1 89 23 105 75
214 1 89 23 105 12
215 1 89 23 105 56
216 1 90 46 118 61
217 1 90 46 118 17
218 1 90 46 118 82
219 1 90 46 118 46
220 1 90 46 118 24
221 1 90 46 90 46
222 1 90 46 90 24
223 1 90 46 90 72
224 1 90 46 90 54
225 1 90 46 90 6
226 1 90 24 118 61
227 1 90 24 118 17
228 1 90 24 118 82
229 1 90 24 118 46
230 1 90 24 118 24
231 1 90 24 90 46
232 1 90 24 90 24
233 1 90 24 90 72
234 1 90 24 90 54
235 1 90 24 90 6
236 1 90 72 90 46
237 1 90 72 90 24
238 1 90 72 90 72
239 1 90 72 90 54
240 1 90 72 90 6
241 1 90 72 92 26
242 1 90 72 92 72
243 1 90 72 92 51
244 1 90 72 92 1
245 1 90 54 90 46
246 1 90 54 90 24
247 1 90 54 90 72
248 1 90 54 90 54
249 1 90 54 90 6
250 1 90 54 95 54
251 1 90 54 95 67
252 1 90 54 95 41
253 1 90 54 95 29
254 1 90 54 95 4
255 1 90 6 90 46
256 1 90 6 90 24
257 1 90 6 90 72
258 1 90 6 90 54
259 1 90 6 90 6
260 1 90 6 93 27
261 1 90 6 93 43
262 1 90 6 93 69
263 1 90 6 93 6
264 1 90 6 93 50
265 1 91 2 86 50
266 1 91 2 86 20
267 1 91 2 86 68
268 1 91 2 86 2
269 1 91 2 91 2
270 1 91 2 91 52
271 1 91 2 91 25
272 1 91 2 91 71
273 1 91 52 88 4
274 1 91 52 88 52
275 1 91 52 88 70
276 1 91 52 88 48
277 1 91 52 88 22
278 1 91 52 91 2
279 1 91 52 91 52
280 1 91 52 91 25
281 1 91 52 91 71
282 1 91 25 91 2
283 1 91 25 91 52
284 1 91 25 91 25
285 1 91 25 91 71
286 1 91 25 109 25
287 1 91 25 109 13
288 1 91 25 109 79
289 1 91 25 109 61
290 1 91 71 91 2
291 1 91 71 91 52
292 1 91 71 91 25
293 1 91 71 91 71
294 1 91 71 89 53
295 1 91 71 89 5
296 1 91 71 89 71
297 1 91 71 89 37
298 1 91 71 89 23
299 1 92 26 98 56
300 1 92 26 98 26
301 1 92 26 98 74
302 1 92 26 98 8
303 1 92 26 92 26
304 1 92 26 92 72
305 1 92 26 92 51
306 1 92 26 92 1
307 1 92 72 90 46
308 1 92 72 90 24
309 1 92 72 90 72
310 1 92 72 90 54
311 1 92 72 90 6
312 1 92 72 92 26
313 1 92 72 92 72
314 1 92 72 92 51
315 1 92 72 92 1
316 1 92 51 92 26
317 1 92 51 92 72
318 1 92 51 92 51
319 1 92 51 92 1
320 1 92 51 87 51
321 1 92 51 87 39
322 1 92 51 87 21
323 1 92 51 87 69
324 1 92 51 87 3
325 1 92 1 92 26
326 1 92 1 92 72
327 1 92 1 92 51
328 1 92 1 92 1
329 1 92 1 85 1
330 1 92 1 85 67
331 1 92 1 85 19
332 1 92 1 85 49
333 1 93 27 113 65
334 1 93 27 113 17
335 1 93 27 113 83
336 1 93 27 113 27
337 1 93 27 113 43
338 1 93 27 93 27
339 1 93 27 93 43
340 1 93 27 93 69
341 1 93 27 93 6
342 1 93 27 93 50
343 1 93 43 113 65
344 1 93 43 113 17
345 1 93 43 113 83
346 1 93 43 113 27
347 1 93 43 113 43
348 1 93 43 93 27
349 1 93 43 93 43
350 1 93 43 93 69
351 1 93 43 93 6
352 1 93 43 93 50
353 1 93 69 93 27
354 1 93 69 93 43
355 1 93 69 93 69
356 1 93 69 93 6
357 1 93 69 93 50
358 1 93 69 87 51
359 1 93 69 87 39
360 1 93 69 87 21
361 1 93 69 87 69
362 1 93 69 87 3
363 1 93 6 90 46
364 1 93 6 90 24
365 1 93 6 90 72
366 1 93 6 90 54
367 1 93 6 90 6
368 1 93 6 93 27
369 1 93 6 93 43
370 1 93 6 93 69
371 1 93 6 93 6
372 1 93 6 93 50
373 1 93 50 93 27
374 1 93 50 93 43
375 1 93 50 93 69
376 1 93 50 93 6
377 1 93 50 93 50
378 1 93 50 86 50
379 1 93 50 86 20
380 1 93 50 86 68
381 1 93 50 86 2
382 1 94 49 85 1
383 1 94 49 85 67
384 1 94 49 85 19
385 1 94 49 85 49
386 1 94 49 94 49
387 1 94 49 94 5
388 1 94 49 94 70
389 1 94 49 94 35
390 1 94 49 94 28
391 1 94 5 94 49
392 1 94 5 94 5
393 1 94 5 94 70
394 1 94 5 94 35
395 1 94 5 94 28
396 1 94 5 89 53
397 1 94 5 89 5
398 1 94 5 89 71
399 1 94 5 89 37
400 1 94 5 89 23
401 1 94 70 88 4
402 1 94 70 88 52
403 1 94 70 88 70
404 1 94 70 88 48
405 1 94 70 88 22
406 1 94 70 94 49
407 1 94 70 94 5
408 1 94 70 94 70
409 1 94 70 94 35
410 1 94 70 94 28
411 1 94 35 94 49
412 1 94 35 94 5
413 1 94 35 94 70
414 1 94 35 94 35
415 1 94 35 94 28
416 1 94 35 102 35
417 1 94 35 102 28
418 1 94 35 102 78
419 1 94 35 102 60
420 1 94 35 102 12
421 1 94 28 94 49
422 1 94 28 94 5
423 1 94 28 94 70
424 1 94 28 94 35
425 1 94 28 94 28
426 1 94 28 102 35
427 1 94 28 102 28
428 1 94 28 102 78
429 1 94 28 102 60
430 1 94 28 102 12
431 1 95 54 90 46
432 1 95 54 90 24
433 1 95 54 90 72
434 1 95 54 90 54
435 1 95 54 90 6
436 1 95 54 95 54
437 1 95 54 95 67
438 1 95 54 95 41
439 1 95 54 95 29
440 1 95 54 95 4
441 1 95 67 95 54
442 1 95 67 95 67
443 1 95 67 95 41
444 1 95 67 95 29
445 1 95 67 95 4
446 1 95 67 85 1
447 1 95 67 85 67
448 1 95 67 85 19
449 1 95 67 85 49
450 1 95 41 95 54
451 1 95 41 95 67
452 1 95 41 95 41
453 1 95 41 95 29
454 1 95 41 95 4
455 1 95 41 111 63
456 1 95 41 111 81
457 1 95 41 111 41
458 1 95 41 111 29
459 1 95 41 111 15
460 1 95 29 95 54
461 1 95 29 95 67
462 1 95 29 95 41
463 1 95 29 95 29
464 1 95 29 95 4
465 1 95 29 111 63
466 1 95 29 111 81
467 1 95 29 111 41
468 1 95 29 111 29
469 1 95 29 111 15
470 1 95 4 95 54
471 1 95 4 95 67
472 1 95 4 95 41
473 1 95 4 95 29
474 1 95 4 95 4
475 1 95 4 88 4
476 1 95 4 88 52
477 1 95 4 88 70
478 1 95 4 88 48
479 1 95 4 88 22
480 1 96 3 87 51
481 1 96 3 87 39
482 1 96 3 87 21
483 1 96 3 87 69
484 1 96 3 87 3
485 1 96 3 96 3
486 1 96 3 96 33
487 1 96 3 96 30
488 1 96 3 96 68
489 1 96 3 96 53
490 1 96 33 100 10
491 1 96 33 100 58
492 1 96 33 100 33
493 1 96 33 100 30
494 1 96 33 100 76
495 1 96 33 96 3
496 1 96 33 96 33
497 1 96 33 96 30
498 1 96 33 96 68
499 1 96 33 96 53
500 1 96 30 100 10
501 1 96 30 100 58
502 1 96 30 100 33
503 1 96 30 100 30
504 1 96 30 100 76
505 1 96 30 96 3
506 1 96 30 96 33
507 1 96 30 96 30
508 1 96 30 96 68
509 1 96 30 96 53
510 1 96 68 96 3
511 1 96 68 96 33
512 1 96 68 96 30
513 1 96 68 96 68
514 1 96 68 96 53
515 1 96 68 86 50
516 1 96 68 86 20
517 1 96 68 86 68
518 1 96 68 86 2
519 1 96 53 96 3
520 1 96 53 96 33
521 1 96 53 96 30
522 1 96 53 96 68
523 1 96 53 96 53
524 1 96 53 89 53
525 1 96 53 89 5
526 1 96 53 89 71
527 1 96 53 89 37
528 1 96 53 89 23
529 1 97 31 115 14
530 1 97 31 115 64
531 1 97 31 115 31
532 1 97 31 115 83
533 1 97 31 97 31
534 1 97 31 97 7
535 1 97 31 97 73
536 1 97 31 97 55
537 1 97 7 104 36
538 1 97 7 104 57
539 1 97 7 104 78
540 1 97 7 104 7
541 1 97 7 97 31
542 1 97 7 97 7
543 1 97 7 97 73
544 1 97 7 97 55
545 1 97 73 107 60
546 1 97 73 107 39
547 1 97 73 107 21
548 1 97 73 107 73
549 1 97 73 107 10
550 1 97 73 97 31
551 1 97 73 97 7
552 1 97 73 97 73
553 1 97 73 97 55
554 1 97 55 97 31
555 1 97 55 97 7
556 1 97 55 97 73
557 1 97 55 97 55
558 1 97 55 106 55
559 1 97 55 106 11
560 1 97 55 106 76
561 1 97 55 106 38
562 1 97 55 106 44
563 1 98 56 105 37
564 1 98 56 105 23
565 1 98 56 105 75
566 1 98 56 105 12
567 1 98 56 105 56
568 1 98 56 98 56
569 1 98 56 98 26
570 1 98 56 98 74
571 1 98 56 98 8
572 1 98 26 98 56
573 1 98 26 98 26
574 1 98 26 98 74
575 1 98 26 98 8
576 1 98 26 92 26
577 1 98 26 92 72
578 1 98 26 92 51
579 1 98 26 92 1
580 1 98 74 98 56
581 1 98 74 98 26
582 1 98 74 98 74
583 1 98 74 98 8
584 1 98 74 108 9
585 1 98 74 108 40
586 1 98 74 108 74
587 1 98 74 108 42
588 1 98 74 108 59
589 1 98 8 98 56
590 1 98 8 98 26
591 1 98 8 98 74
592 1 98 8 98 8
593 1 98 8 103 8
594 1 98 8 103 58
595 1 98 8 103 77
596 1 98 8 103 19
597 1 99 57 104 36
598 1 99 57 104 57
599 1 99 57 104 78
600 1 99 57 104 7
601 1 99 57 99 57
602 1 99 57 99 32
603 1 99 57 99 75
604 1 99 57 99 47
605 1 99 57 99 9
606 1 99 32 119 66
607 1 99 32 119 79
608 1 99 32 119 47
609 1 99 32 119 32
610 1 99 32 119 16
611 1 99 32 99 57
612 1 99 32 99 32
613 1 99 32 99 75
614 1 99 32 99 47
615 1 99 32 99 9
616 1 99 75 105 37
617 1 99 75 105 23
618 1 99 75 105 75
619 1 99 75 105 12
620 1 99 75 105 56
621 1 99 75 99 57
622 1 99 75 99 32
623 1 99 75 99 75
624 1 99 75 99 47
625 1 99 75 99 9
626 1 99 47 119 66
627 1 99 47 119 79
628 1 99 47 119 47
629 1 99 47 119 32
630 1 99 47 119 16
631 1 99 47 99 57
632 1 99 47 99 32
633 1 99 47 99 75
634 1 99 47 99 47
635 1 99 47 99 9
636 1 99 9 99 57
637 1 99 9 99 32
638 1 99 9 99 75
639 1 99 9 99 47
640 1 99 9 99 9
641 1 99 9 108 9
642 1 99 9 108 40
643 1 99 9 108 74
644 1 99 9 108 42
645 1 99 9 108 59
646 1 100 10 107 60
647 1 100 10 107 39
648 1 100 10 107 21
649 1 100 10 107 73
650 1 100 10 107 10
651 1 100 10 100 10
652 1 100 10 100 58
653 1 100 10 100 33
654 1 100 10 100 30
655 1 100 10 100 76
656 1 100 58 100 10
657 1 100 58 100 58
658 1 100 58 100 33
659 1 100 58 100 30
660 1 100 58 100 76
661 1 100 58 103 8
662 1 100 58 103 58
663 1 100 58 103 77
664 1 100 58 103 19
665 1 100 33 100 10
666 1 100 33 100 58
667 1 100 33 100 33
668 1 100 33 100 30
669 1 100 33 100 76
670 1 100 33 96 3
671 1 100 33 96 33
672 1 100 33 96 30
673 1 100 33 96 68
674 1 100 33 96 53
675 1 100 30 100 10
676 1 100 30 100 58
677 1 100 30 100 33
678 1 100 30 100 30
679 1 100 30 100 76
680 1 100 30 96 3
681 1 100 30 96 33
682 1 100 30 96 30
683 1 100 30 96 68
684 1 100 30 96 53
685 1 100 76 100 10
686 1 100 76 100 58
687 1 100 76 100 33
688 1 100 76 100 30
689 1 100 76 100 76
690 1 100 76 106 55
691 1 100 76 106 11
692 1 100 76 106 76
693 1 100 76 106 38
694 1 100 76 106 44
695 1 101 59 108 9
696 1 101 59 108 40
697 1 101 59 108 74
698 1 101 59 108 42
699 1 101 59 108 59
700 1 101 59 101 59
701 1 101 59 101 11
702 1 101 59 101 77
703 1 101 59 101 34
704 1 101 59 101 45
705 1 101 11 106 55
706 1 101 11 106 11
707 1 101 11 106 76
708 1 101 11 106 38
709 1 101 11 106 44
710 1 101 11 101 59
711 1 101 11 101 11
712 1 101 11 101 77
713 1 101 11 101 34
714 1 101 11 101 45
715 1 101 77 103 8
716 1 101 77 103 58
717 1 101 77 103 77
718 1 101 77 103 19
719 1 101 77 101 59
720 1 101 77 101 11
721 1 101 77 101 77
722 1 101 77 101 34
723 1 101 77 101 45
724 1 101 34 101 59
725 1 101 34 101 11
726 1 101 34 101 77
727 1 101 34 101 34
728 1 101 34 101 45
729 1 101 34 117 34
730 1 101 34 117 45
731 1 101 34 117 81
732 1 101 34 117 18
733 1 101 34 117 62
734 1 101 45 101 59
735 1 101 45 101 11
736 1 101 45 101 77
737 1 101 45 101 34
738 1 101 45 101 45
739 1 101 45 117 34
740 1 101 45 117 45
741 1 101 45 117 81
742 1 101 45 117 18
743 1 101 45 117 62
744 1 102 35 94 49
745 1 102 35 94 5
746 1 102 35 94 70
747 1 102 35 94 35
748 1 102 35 94 28
749 1 102 35 102 35
750 1 102 35 102 28
751 1 102 35 102 78
752 1 102 35 102 60
753 1 102 35 102 12
754 1 102 28 94 49
755 1 102 28 94 5
756 1 102 28 94 70
757 1 102 28 94 35
758 1 102 28 94 28
759 1 102 28 102 35
760 1 102 28 102 28
761 1 102 28 102 78
762 1 102 28 102 60
763 1 102 28 102 12
764 1 102 78 102 35
765 1 102 78 102 28
766 1 102 78 102 78
767 1 102 78 102 60
768 1 102 78 102 12
769 1 102 78 104 36
770 1 102 78 104 57
771 1 102 78 104 78
772 1 102 78 104 7
773 1 102 60 102 35
774 1 102 60 102 28
775 1 102 60 102 78
776 1 102 60 102 60
777 1 102 60 102 12
778 1 102 60 107 60
779 1 102 60 107 39
780 1 102 60 107 21
781 1 102 60 107 73
782 1 102 60 107 10
783 1 102 12 102 35
784 1 102 12 102 28
785 1 102 12 102 78
786 1 102 12 102 60
787 1 102 12 102 12
788 1 102 12 105 37
789 1 102 12 105 23
790 1 102 12 105 75
791 1 102 12 105 12
792 1 102 12 105 56
793 1 103 8 98 56
794 1 103 8 98 26
795 1 103 8 98 74
796 1 103 8 98 8
797 1 103 8 103 8
798 1 103 8 103 58
799 1 103 8 103 77
800 1 103 8 103 19
801 1 103 58 100 10
802 1 103 58 100 58
803 1 103 58 100 33
804 1 103 58 100 30
805 1 103 58 100 76
806 1 103 58 103 8
807 1 103 58 103 58
808 1 103 58 103 77