LAMMPS DATA FILE FOR HP

64 atoms
0 bonds
0 angles

2 atom types
1 bond types
1 angle types
3 dihedral types
0 improper types

0 26.5326 xlo xhi
0 24.4848 ylo yhi
0 17.925399999999996 zlo zhi

Masses

1 14.07
2 1.005

Bond Coeffs

1 680.0 1.61

Angle Coeffs

1 70.0 149.43

Dihedral Coeffs

1 4.8 38.89 1
2 4.8 24.2875 1
3 4.8 158.6827 1

Atoms # full

1 1 2 0.1481 2.96043 3.43952 10.0858
2 1 2 0.1481 3.68732 10.816499999999998 3.21565
3 1 2 0.1481 12.6294 4.38681 13.2025
4 1 2 0.1481 2.9550299999999994 7.0847 9.43386
5 1 2 0.1481 5.35306 11.0996 11.189399999999997
6 1 2 0.1481 10.0701 12.662099999999999 8.9193
7 1 2 0.1481 4.87694 3.17537 3.3676
8 1 2 0.1481 5.74982 6.1664 3.7103999999999995
9 1 2 0.1481 7.79606 9.55058 11.8195
10 1 2 0.1481 8.03903 5.42407 8.01545
11 1 2 0.1481 9.20537 5.26152 12.2387
12 1 2 0.1481 9.71607 9.16256 8.50195
13 1 2 0.1481 13.0303 7.898299999999999 5.62319
14 1 2 0.1481 3.1101199999999998 7.06655 12.9873
15 1 2 0.1481 5.19178 6.701979999999999 6.69924
16 1 2 0.1481 11.6803 11.775599999999999 12.9183
17 1 2 0.1481 3.8607299999999998 2.9006499999999997 6.756829999999999
18 1 2 0.1481 6.798709999999999 9.8023 3.90284
19 1 2 0.1481 7.751539999999999 12.933599999999998 4.59015
20 1 2 0.1481 9.19347 12.655899999999999 12.220099999999999
21 1 2 0.1481 6.69947 9.81057 7.480779999999999
22 1 2 0.1481 11.6817 4.80715 5.99472
23 1 2 0.1481 7.12984 2.6751 8.19588
24 1 2 0.1481 10.878699999999998 5.40443 9.11158
25 1 2 0.1481 6.05898 7.408919999999999 10.9564
26 1 2 0.1481 3.3300399999999994 10.4574 7.140869999999999
27 1 2 0.1481 10.842 8.43999 12.6216
28 1 2 0.1481 8.84778 5.30264 4.73404
29 1 2 0.1481 9.48044 8.48534 5.1639
30 1 2 0.1481 11.238 12.038499999999999 5.08076
31 1 2 0.1481 6.575959999999999 3.34898 11.2434
32 1 2 0.1481 12.7769 10.9183 10.0194
33 1 1 -0.28 11.814499999999999 11.36 7.35129
34 1 1 -0.28 7.451769999999999 7.95367 6.69631
35 1 1 -0.28 6.48029 4.12153 5.84778
36 1 1 -0.28 8.95836 10.5959 3.24864
37 1 1 -0.28 13.349799999999998 13.177799999999998 4.4681
38 1 1 -0.28 13.2134 5.37205 8.03788
39 1 1 -0.28 5.90631 4.93179 8.60405
40 1 1 -0.28 3.58167 5.48925 4.82425
41 1 1 -0.28 10.3953 6.90363 6.75133
42 1 1 -0.28 9.97048 3.50943 6.68991
43 1 1 -0.28 7.86818 7.16777 3.42187
44 1 1 -0.28 8.65992 3.81671 10.3544
45 1 1 -0.28 4.41424 8.64041 5.76022
46 1 1 -0.28 2.8867 9.75834 11.8376
47 1 1 -0.28 6.6476 11.898399999999999 13.019
48 1 1 -0.28 10.2975 3.7134 3.36788
49 1 1 -0.28 7.44966 11.207 9.9648
50 1 1 -0.28 5.23689 11.7488 5.992839999999999
51 1 1 -0.28 12.047099999999999 9.67786 3.5632099999999998
52 1 1 -0.28 9.05254 7.5291 10.872899999999998
53 1 1 -0.28 4.72833 8.35384 9.45335
54 1 1 -0.28 4.63673 12.1877 8.64129
55 1 1 -0.28 11.4059 2.64861 10.7774
56 1 1 -0.28 12.2905 8.98796 8.43001
57 1 1 -0.28 11.26 6.36547 3.64328
58 1 1 -0.28 5.238519999999999 8.3691 13.0613
59 1 1 -0.28 3.50659 12.5976 12.554899999999998
60 1 1 -0.28 7.331689999999999 4.15441 13.3534
61 1 1 -0.28 12.258399999999998 5.70912 11.620899999999999
62 1 1 -0.28 4.38879 5.09723 11.791199999999998
63 1 1 -0.28 10.2725 10.6231 10.4927
64 1 1 -0.28 8.58857 11.4191 6.64964

Velocities

1 0 0 0
2 0 0 0
3 0 0 0
4 0 0 0
5 0 0 0
6 0 0 0
7 0 0 0
8 0 0 0
9 0 0 0
10 0 0 0
11 0 0 0
12 0 0 0
13 0 0 0
14 0 0 0
15 0 0 0
16 0 0 0
17 0 0 0
18 0 0 0
19 0 0 0
20 0 0 0
21 0 0 0
22 0 0 0
23 0 0 0
24 0 0 0
25 0 0 0
26 0 0 0
27 0 0 0
28 0 0 0
29 0 0 0
30 0 0 0
31 0 0 0
32 0 0 0
33 0 0 0
34 0 0 0
35 0 0 0
36 0 0 0
37 0 0 0
38 0 0 0
39 0 0 0
40 0 0 0
41 0 0 0
42 0 0 0
43 0 0 0
44 0 0 0
45 0 0 0
46 0 0 0
47 0 0 0
48 0 0 0
49 0 0 0
50 0 0 0
51 0 0 0
52 0 0 0
53 0 0 0
54 0 0 0
55 0 0 0
56 0 0 0
57 0 0 0
58 0 0 0
59 0 0 0
60 0 0 0
61 0 0 0
62 0 0 0
63 0 0 0
64 0 0 0

Bonds


Angles


Dihedrals

